metric,value
openfoam_time,4.0
analytical_area,5.5188201895961254e-05
analytical_hL,8.044453366591113e-07
l2_rms,0.000862056358143705
l2_rms_capillary,0.3149821373564518
l2_sum,0.10943702759555952
num_samples,16116