metric,value
openfoam_time,4.0
analytical_area,5.5189442851546764e-05
analytical_hL,4.845677406854474e-05
l2_rms,0.0009127808252810986
l2_rms_capillary,0.31913442205793074
l2_sum,0.1158764382645307
num_samples,16116