metric,value
openfoam_time,8.0
analytical_area,5.518820936736532e-05
analytical_hL,3.2197348632787884e-06
l2_rms,0.0010717734295644535
l2_sum,0.13606035995140822
num_samples,16116