metric,value
openfoam_time,4.0
analytical_area,5.5188790814940605e-05
analytical_hL,3.308979608251628e-05
l2_rms,0.0009065781190067013
l2_rms_capillary,0.31828790939713447
l2_sum,0.11508901209302137
num_samples,16116