metric,value
openfoam_time,4.0
analytical_area,5.5188201315052974e-05
analytical_hL,4.406837499394942e-07
l2_rms,0.0008537812899477269
l2_rms_capillary,0.31400086945725636
l2_sum,0.108386517547158
num_samples,16116