metric,value
openfoam_time,4.38797
analytical_area,5.518820240018937e-05
analytical_hL,1.0199374908641335e-06
l2_rms,0.0001758695604019595
l2_rms_capillary,0.06388806739953103
l2_sum,0.0223264311585992
num_samples,16116