metric,value
openfoam_time,4.0
analytical_area,5.5188202798009296e-05
analytical_hL,1.1620867477424707e-06
l2_rms,0.0008726839953324859
l2_rms_capillary,0.3155403708581642
l2_sum,0.11078619347470073
num_samples,16116