tilt_deg,l2_rms,case_dir
4.0,4.875779264012033e-05,case_H0.0083_D0.0083_flat_tilt_T4.0_m0.0001
9.0,0.00011075976807174501,case_H0.0083_D0.0083_flat_tilt_T9.0_m0.0001
14.0,0.00017570330329339467,case_H0.0083_D0.0083_flat_tilt_T14.0_m0.0001_1
19.0,0.0002369278316649328,case_H0.0083_D0.0083_flat_tilt_T19.0_m0.0001
24.0,0.0003023821947787016,case_H0.0083_D0.0083_flat_tilt_T24.0_m0.0001
